version 3
run Run6-0-20260508-10:22:28-3064
attr configname Run6
attr datetime 20260508-10:22:28
attr datetimef 20260508-102228
attr experiment Run6
attr inifile omnetpp.ini
attr iterationvars ""
attr iterationvarsd ""
attr iterationvarsf ""
attr measurement ""
attr network HopCountNet
attr processid 3064
attr repetition 0
attr replication #0
attr resultdir results
attr runnumber 0
attr seedset 9999
config description "Seed 9999"
config seed-set 9999
config network HopCountNet
config sim-time-limit 100s
config **.sender.numPackets 50
config output-scalar-file results/HopCount-Run6.sca
config output-vector-file results/HopCount-Run6.vec
config cmdenv-express-mode false

vector 0 HopCountNet.receiver hopCount ETV
0	11	0	9
0	18	0.1	5
0	34	0.2	14
0	62	0.4	5
0	69	0.5	5
0	77	0.6	6
0	86	0.7	7
0	92	0.8	4
0	100	0.9	6
0	106	1	4
0	117	1.1	9
0	144	1.3	4
0	176	1.5	9
0	186	1.6	8
0	197	1.7	9
0	207	1.8	8
0	219	1.9	10
0	228	2	7
0	236	2.1	6
0	244	2.2	6
0	254	2.3	8
0	267	2.4	11
0	273	2.5	4
0	308	2.7	12
0	326	2.8	16
0	332	2.9	4
0	341	3	7
0	370	3.2	6
0	378	3.3	6
0	388	3.4	8
0	397	3.5	7
0	404	3.6	5
0	411	3.7	5
0	421	3.8	8
0	427	3.9	4
0	440	4	11
0	449	4.1	7
0	457	4.2	6
0	464	4.3	5
0	471	4.4	5
0	478	4.5	5
0	484	4.6	4
0	511	4.8	4
0	517	4.9	4

