version 3
run General-0-20260508-10:01:01-1100
attr configname General
attr datetime 20260508-10:01:01
attr datetimef 20260508-100101
attr experiment General
attr inifile omnetpp.ini
attr iterationvars ""
attr iterationvarsd ""
attr iterationvarsf ""
attr measurement ""
attr network HopCountNet
attr processid 1100
attr repetition 0
attr replication #0
attr resultdir results
attr runnumber 0
attr seedset 0
config network HopCountNet
config sim-time-limit 100s
config **.sender.numPackets 50
config output-scalar-file results/HopCount-General.sca
config output-vector-file results/HopCount-General.vec
config cmdenv-express-mode false

vector 0 HopCountNet.receiver hopCount ETV
0	15	0	13
0	29	0.1	12
0	39	0.2	8
0	55	0.3	14
0	66	0.4	9
0	73	0.5	5
0	93	0.6	18
0	102	0.7	7
0	110	0.8	6
0	128	0.9	16
0	136	1	6
0	150	1.1	12
0	167	1.2	15
0	176	1.3	7
0	182	1.4	4
0	189	1.5	5
0	196	1.6	5
0	203	1.7	5
0	212	1.8	7
0	220	1.9	6
0	227	2	5
0	238	2.1	9
0	248	2.2	8
0	258	2.3	8
0	267	2.4	7
0	273	2.5	4
0	285	2.6	10
0	301	2.7	14
0	310	2.8	7
0	347	3	14
0	365	3.1	16
0	373	3.2	6
0	384	3.3	9
0	391	3.4	5
0	420	3.6	6
0	434	3.7	12
0	444	3.8	8
0	451	3.9	5
0	458	4	5
0	465	4.1	5
0	474	4.2	7
0	480	4.3	4
0	491	4.4	9
0	507	4.5	14
0	520	4.6	11
0	529	4.7	7
0	536	4.8	5
0	544	4.9	6

